# vtk DataFile Version 2.0
Beam Element EBBE3D load 9
ASCII 
DATASET UNSTRUCTURED_GRID 
POINTS 336 float
58.33 -250 8.42569e-51 
60.233 -250 9.56709 
65.6523 -250 17.6777 
73.7629 -250 23.097 
83.33 -250 25 
92.8971 -250 23.097 
101.008 -250 17.6777 
106.427 -250 9.56709 
108.33 -250 3.06162e-15 
106.427 -250 -9.56709 
101.008 -250 -17.6777 
92.8971 -250 -23.097 
83.33 -250 -25 
73.7629 -250 -23.097 
65.6523 -250 -17.6777 
60.233 -250 -9.56709 
58.33 -225 -4.23045e-42 
60.233 -225 9.56709 
65.6523 -225 17.6777 
73.7629 -225 23.097 
83.33 -225 25 
92.8971 -225 23.097 
101.008 -225 17.6777 
106.427 -225 9.56709 
108.33 -225 3.06162e-15 
106.427 -225 -9.56709 
101.008 -225 -17.6777 
92.8971 -225 -23.097 
83.33 -225 -25 
73.7629 -225 -23.097 
65.6523 -225 -17.6777 
60.233 -225 -9.56709 
58.33 -200 -8.31702e-42 
60.233 -200 9.56709 
65.6523 -200 17.6777 
73.7629 -200 23.097 
83.33 -200 25 
92.8971 -200 23.097 
101.008 -200 17.6777 
106.427 -200 9.56709 
108.33 -200 3.06162e-15 
106.427 -200 -9.56709 
101.008 -200 -17.6777 
92.8971 -200 -23.097 
83.33 -200 -25 
73.7629 -200 -23.097 
65.6523 -200 -17.6777 
60.233 -200 -9.56709 
58.33 -175 -1.21435e-41 
60.233 -175 9.56709 
65.6523 -175 17.6777 
73.7629 -175 23.097 
83.33 -175 25 
92.8971 -175 23.097 
101.008 -175 17.6777 
106.427 -175 9.56709 
108.33 -175 3.06162e-15 
106.427 -175 -9.56709 
101.008 -175 -17.6777 
92.8971 -175 -23.097 
83.33 -175 -25 
73.7629 -175 -23.097 
65.6523 -175 -17.6777 
60.233 -175 -9.56709 
58.33 -150 -1.56108e-41 
60.233 -150 9.56709 
65.6523 -150 17.6777 
73.7629 -150 23.097 
83.33 -150 25 
92.8971 -150 23.097 
101.008 -150 17.6777 
106.427 -150 9.56709 
108.33 -150 3.06162e-15 
106.427 -150 -9.56709 
101.008 -150 -17.6777 
92.8971 -150 -23.097 
83.33 -150 -25 
73.7629 -150 -23.097 
65.6523 -150 -17.6777 
60.233 -150 -9.56709 
58.33 -125 -1.86419e-41 
60.233 -125 9.56709 
65.6523 -125 17.6777 
73.7629 -125 23.097 
83.33 -125 25 
92.8971 -125 23.097 
101.008 -125 17.6777 
106.427 -125 9.56709 
108.33 -125 3.06162e-15 
106.427 -125 -9.56709 
101.008 -125 -17.6777 
92.8971 -125 -23.097 
83.33 -125 -25 
73.7629 -125 -23.097 
65.6523 -125 -17.6777 
60.233 -125 -9.56709 
58.33 -100 -2.11704e-41 
60.233 -100 9.56709 
65.6523 -100 17.6777 
73.7629 -100 23.097 
83.33 -100 25 
92.8971 -100 23.097 
101.008 -100 17.6777 
106.427 -100 9.56709 
108.33 -100 3.06162e-15 
106.427 -100 -9.56709 
101.008 -100 -17.6777 
92.8971 -100 -23.097 
83.33 -100 -25 
73.7629 -100 -23.097 
65.6523 -100 -17.6777 
60.233 -100 -9.56709 
58.33 -75 -2.3155e-41 
60.233 -75 9.56709 
65.6523 -75 17.6777 
73.7629 -75 23.097 
83.33 -75 25 
92.8971 -75 23.097 
101.008 -75 17.6777 
106.427 -75 9.56709 
108.33 -75 3.06162e-15 
106.427 -75 -9.56709 
101.008 -75 -17.6777 
92.8971 -75 -23.097 
83.33 -75 -25 
73.7629 -75 -23.097 
65.6523 -75 -17.6777 
60.233 -75 -9.56709 
58.33 -50 -2.45618e-41 
60.233 -50 9.56709 
65.6523 -50 17.6777 
73.7629 -50 23.097 
83.33 -50 25 
92.8971 -50 23.097 
101.008 -50 17.6777 
106.427 -50 9.56709 
108.33 -50 3.06162e-15 
106.427 -50 -9.56709 
101.008 -50 -17.6777 
92.8971 -50 -23.097 
83.33 -50 -25 
73.7629 -50 -23.097 
65.6523 -50 -17.6777 
60.233 -50 -9.56709 
58.33 -25 -2.53778e-41 
60.233 -25 9.56709 
65.6523 -25 17.6777 
73.7629 -25 23.097 
83.33 -25 25 
92.8971 -25 23.097 
101.008 -25 17.6777 
106.427 -25 9.56709 
108.33 -25 3.06162e-15 
106.427 -25 -9.56709 
101.008 -25 -17.6777 
92.8971 -25 -23.097 
83.33 -25 -25 
73.7629 -25 -23.097 
65.6523 -25 -17.6777 
60.233 -25 -9.56709 
58.33 -5.60976e-46 -2.55912e-41 
60.233 -1.45664e-43 9.56709 
65.6523 -2.68677e-43 17.6777 
73.7629 -3.50871e-43 23.097 
83.33 -3.79734e-43 25 
92.8971 -3.50871e-43 23.097 
101.008 -2.68677e-43 17.6777 
106.427 -1.45664e-43 9.56709 
108.33 -5.60976e-46 3.06162e-15 
106.427 1.44542e-43 -9.56709 
101.008 2.67555e-43 -17.6777 
92.8971 3.49749e-43 -23.097 
83.33 3.78612e-43 -25 
73.7629 3.49749e-43 -23.097 
65.6523 2.67555e-43 -17.6777 
60.233 1.44542e-43 -9.56709 
58.33 25 -2.5212e-41 
60.233 25 9.56709 
65.6523 25 17.6777 
73.7629 25 23.097 
83.33 25 25 
92.8971 25 23.097 
101.008 25 17.6777 
106.427 25 9.56709 
108.33 25 3.06162e-15 
106.427 25 -9.56709 
101.008 25 -17.6777 
92.8971 25 -23.097 
83.33 25 -25 
73.7629 25 -23.097 
65.6523 25 -17.6777 
60.233 25 -9.56709 
58.33 50 -2.42537e-41 
60.233 50 9.56709 
65.6523 50 17.6777 
73.7629 50 23.097 
83.33 50 25 
92.8971 50 23.097 
101.008 50 17.6777 
106.427 50 9.56709 
108.33 50 3.06162e-15 
106.427 50 -9.56709 
101.008 50 -17.6777 
92.8971 50 -23.097 
83.33 50 -25 
73.7629 50 -23.097 
65.6523 50 -17.6777 
60.233 50 -9.56709 
58.33 75 -2.27472e-41 
60.233 75 9.56709 
65.6523 75 17.6777 
73.7629 75 23.097 
83.33 75 25 
92.8971 75 23.097 
101.008 75 17.6777 
106.427 75 9.56709 
108.33 75 3.06162e-15 
106.427 75 -9.56709 
101.008 75 -17.6777 
92.8971 75 -23.097 
83.33 75 -25 
73.7629 75 -23.097 
65.6523 75 -17.6777 
60.233 75 -9.56709 
58.33 100 -2.07114e-41 
60.233 100 9.56709 
65.6523 100 17.6777 
73.7629 100 23.097 
83.33 100 25 
92.8971 100 23.097 
101.008 100 17.6777 
106.427 100 9.56709 
108.33 100 3.06162e-15 
106.427 100 -9.56709 
101.008 100 -17.6777 
92.8971 100 -23.097 
83.33 100 -25 
73.7629 100 -23.097 
65.6523 100 -17.6777 
60.233 100 -9.56709 
58.33 125 -1.81774e-41 
60.233 125 9.56709 
65.6523 125 17.6777 
73.7629 125 23.097 
83.33 125 25 
92.8971 125 23.097 
101.008 125 17.6777 
106.427 125 9.56709 
108.33 125 3.06162e-15 
106.427 125 -9.56709 
101.008 125 -17.6777 
92.8971 125 -23.097 
83.33 125 -25 
73.7629 125 -23.097 
65.6523 125 -17.6777 
60.233 125 -9.56709 
58.33 150 -1.518e-41 
60.233 150 9.56709 
65.6523 150 17.6777 
73.7629 150 23.097 
83.33 150 25 
92.8971 150 23.097 
101.008 150 17.6777 
106.427 150 9.56709 
108.33 150 3.06162e-15 
106.427 150 -9.56709 
101.008 150 -17.6777 
92.8971 150 -23.097 
83.33 150 -25 
73.7629 150 -23.097 
65.6523 150 -17.6777 
60.233 150 -9.56709 
58.33 175 -1.17782e-41 
60.233 175 9.56709 
65.6523 175 17.6777 
73.7629 175 23.097 
83.33 175 25 
92.8971 175 23.097 
101.008 175 17.6777 
106.427 175 9.56709 
108.33 175 3.06162e-15 
106.427 175 -9.56709 
101.008 175 -17.6777 
92.8971 175 -23.097 
83.33 175 -25 
73.7629 175 -23.097 
65.6523 175 -17.6777 
60.233 175 -9.56709 
58.33 200 -8.04404e-42 
60.233 200 9.56709 
65.6523 200 17.6777 
73.7629 200 23.097 
83.33 200 25 
92.8971 200 23.097 
101.008 200 17.6777 
106.427 200 9.56709 
108.33 200 3.06162e-15 
106.427 200 -9.56709 
101.008 200 -17.6777 
92.8971 200 -23.097 
83.33 200 -25 
73.7629 200 -23.097 
65.6523 200 -17.6777 
60.233 200 -9.56709 
58.33 225 -4.08162e-42 
60.233 225 9.56709 
65.6523 225 17.6777 
73.7629 225 23.097 
83.33 225 25 
92.8971 225 23.097 
101.008 225 17.6777 
106.427 225 9.56709 
108.33 225 3.06162e-15 
106.427 225 -9.56709 
101.008 225 -17.6777 
92.8971 225 -23.097 
83.33 225 -25 
73.7629 225 -23.097 
65.6523 225 -17.6777 
60.233 225 -9.56709 
58.33 250 1.04507e-55 
60.233 250 9.56709 
65.6523 250 17.6777 
73.7629 250 23.097 
83.33 250 25 
92.8971 250 23.097 
101.008 250 17.6777 
106.427 250 9.56709 
108.33 250 3.06162e-15 
106.427 250 -9.56709 
101.008 250 -17.6777 
92.8971 250 -23.097 
83.33 250 -25 
73.7629 250 -23.097 
65.6523 250 -17.6777 
60.233 250 -9.56709 
CELLS 320 1600
4 0 16 17 1 
4 1 17 18 2 
4 2 18 19 3 
4 3 19 20 4 
4 4 20 21 5 
4 5 21 22 6 
4 6 22 23 7 
4 7 23 24 8 
4 8 24 25 9 
4 9 25 26 10 
4 10 26 27 11 
4 11 27 28 12 
4 12 28 29 13 
4 13 29 30 14 
4 14 30 31 15 
4 15 31 16 0 
4 16 32 33 17 
4 17 33 34 18 
4 18 34 35 19 
4 19 35 36 20 
4 20 36 37 21 
4 21 37 38 22 
4 22 38 39 23 
4 23 39 40 24 
4 24 40 41 25 
4 25 41 42 26 
4 26 42 43 27 
4 27 43 44 28 
4 28 44 45 29 
4 29 45 46 30 
4 30 46 47 31 
4 31 47 32 16 
4 32 48 49 33 
4 33 49 50 34 
4 34 50 51 35 
4 35 51 52 36 
4 36 52 53 37 
4 37 53 54 38 
4 38 54 55 39 
4 39 55 56 40 
4 40 56 57 41 
4 41 57 58 42 
4 42 58 59 43 
4 43 59 60 44 
4 44 60 61 45 
4 45 61 62 46 
4 46 62 63 47 
4 47 63 48 32 
4 48 64 65 49 
4 49 65 66 50 
4 50 66 67 51 
4 51 67 68 52 
4 52 68 69 53 
4 53 69 70 54 
4 54 70 71 55 
4 55 71 72 56 
4 56 72 73 57 
4 57 73 74 58 
4 58 74 75 59 
4 59 75 76 60 
4 60 76 77 61 
4 61 77 78 62 
4 62 78 79 63 
4 63 79 64 48 
4 64 80 81 65 
4 65 81 82 66 
4 66 82 83 67 
4 67 83 84 68 
4 68 84 85 69 
4 69 85 86 70 
4 70 86 87 71 
4 71 87 88 72 
4 72 88 89 73 
4 73 89 90 74 
4 74 90 91 75 
4 75 91 92 76 
4 76 92 93 77 
4 77 93 94 78 
4 78 94 95 79 
4 79 95 80 64 
4 80 96 97 81 
4 81 97 98 82 
4 82 98 99 83 
4 83 99 100 84 
4 84 100 101 85 
4 85 101 102 86 
4 86 102 103 87 
4 87 103 104 88 
4 88 104 105 89 
4 89 105 106 90 
4 90 106 107 91 
4 91 107 108 92 
4 92 108 109 93 
4 93 109 110 94 
4 94 110 111 95 
4 95 111 96 80 
4 96 112 113 97 
4 97 113 114 98 
4 98 114 115 99 
4 99 115 116 100 
4 100 116 117 101 
4 101 117 118 102 
4 102 118 119 103 
4 103 119 120 104 
4 104 120 121 105 
4 105 121 122 106 
4 106 122 123 107 
4 107 123 124 108 
4 108 124 125 109 
4 109 125 126 110 
4 110 126 127 111 
4 111 127 112 96 
4 112 128 129 113 
4 113 129 130 114 
4 114 130 131 115 
4 115 131 132 116 
4 116 132 133 117 
4 117 133 134 118 
4 118 134 135 119 
4 119 135 136 120 
4 120 136 137 121 
4 121 137 138 122 
4 122 138 139 123 
4 123 139 140 124 
4 124 140 141 125 
4 125 141 142 126 
4 126 142 143 127 
4 127 143 128 112 
4 128 144 145 129 
4 129 145 146 130 
4 130 146 147 131 
4 131 147 148 132 
4 132 148 149 133 
4 133 149 150 134 
4 134 150 151 135 
4 135 151 152 136 
4 136 152 153 137 
4 137 153 154 138 
4 138 154 155 139 
4 139 155 156 140 
4 140 156 157 141 
4 141 157 158 142 
4 142 158 159 143 
4 143 159 144 128 
4 144 160 161 145 
4 145 161 162 146 
4 146 162 163 147 
4 147 163 164 148 
4 148 164 165 149 
4 149 165 166 150 
4 150 166 167 151 
4 151 167 168 152 
4 152 168 169 153 
4 153 169 170 154 
4 154 170 171 155 
4 155 171 172 156 
4 156 172 173 157 
4 157 173 174 158 
4 158 174 175 159 
4 159 175 160 144 
4 160 176 177 161 
4 161 177 178 162 
4 162 178 179 163 
4 163 179 180 164 
4 164 180 181 165 
4 165 181 182 166 
4 166 182 183 167 
4 167 183 184 168 
4 168 184 185 169 
4 169 185 186 170 
4 170 186 187 171 
4 171 187 188 172 
4 172 188 189 173 
4 173 189 190 174 
4 174 190 191 175 
4 175 191 176 160 
4 176 192 193 177 
4 177 193 194 178 
4 178 194 195 179 
4 179 195 196 180 
4 180 196 197 181 
4 181 197 198 182 
4 182 198 199 183 
4 183 199 200 184 
4 184 200 201 185 
4 185 201 202 186 
4 186 202 203 187 
4 187 203 204 188 
4 188 204 205 189 
4 189 205 206 190 
4 190 206 207 191 
4 191 207 192 176 
4 192 208 209 193 
4 193 209 210 194 
4 194 210 211 195 
4 195 211 212 196 
4 196 212 213 197 
4 197 213 214 198 
4 198 214 215 199 
4 199 215 216 200 
4 200 216 217 201 
4 201 217 218 202 
4 202 218 219 203 
4 203 219 220 204 
4 204 220 221 205 
4 205 221 222 206 
4 206 222 223 207 
4 207 223 208 192 
4 208 224 225 209 
4 209 225 226 210 
4 210 226 227 211 
4 211 227 228 212 
4 212 228 229 213 
4 213 229 230 214 
4 214 230 231 215 
4 215 231 232 216 
4 216 232 233 217 
4 217 233 234 218 
4 218 234 235 219 
4 219 235 236 220 
4 220 236 237 221 
4 221 237 238 222 
4 222 238 239 223 
4 223 239 224 208 
4 224 240 241 225 
4 225 241 242 226 
4 226 242 243 227 
4 227 243 244 228 
4 228 244 245 229 
4 229 245 246 230 
4 230 246 247 231 
4 231 247 248 232 
4 232 248 249 233 
4 233 249 250 234 
4 234 250 251 235 
4 235 251 252 236 
4 236 252 253 237 
4 237 253 254 238 
4 238 254 255 239 
4 239 255 240 224 
4 240 256 257 241 
4 241 257 258 242 
4 242 258 259 243 
4 243 259 260 244 
4 244 260 261 245 
4 245 261 262 246 
4 246 262 263 247 
4 247 263 264 248 
4 248 264 265 249 
4 249 265 266 250 
4 250 266 267 251 
4 251 267 268 252 
4 252 268 269 253 
4 253 269 270 254 
4 254 270 271 255 
4 255 271 256 240 
4 256 272 273 257 
4 257 273 274 258 
4 258 274 275 259 
4 259 275 276 260 
4 260 276 277 261 
4 261 277 278 262 
4 262 278 279 263 
4 263 279 280 264 
4 264 280 281 265 
4 265 281 282 266 
4 266 282 283 267 
4 267 283 284 268 
4 268 284 285 269 
4 269 285 286 270 
4 270 286 287 271 
4 271 287 272 256 
4 272 288 289 273 
4 273 289 290 274 
4 274 290 291 275 
4 275 291 292 276 
4 276 292 293 277 
4 277 293 294 278 
4 278 294 295 279 
4 279 295 296 280 
4 280 296 297 281 
4 281 297 298 282 
4 282 298 299 283 
4 283 299 300 284 
4 284 300 301 285 
4 285 301 302 286 
4 286 302 303 287 
4 287 303 288 272 
4 288 304 305 289 
4 289 305 306 290 
4 290 306 307 291 
4 291 307 308 292 
4 292 308 309 293 
4 293 309 310 294 
4 294 310 311 295 
4 295 311 312 296 
4 296 312 313 297 
4 297 313 314 298 
4 298 314 315 299 
4 299 315 316 300 
4 300 316 317 301 
4 301 317 318 302 
4 302 318 319 303 
4 303 319 304 288 
4 304 320 321 305 
4 305 321 322 306 
4 306 322 323 307 
4 307 323 324 308 
4 308 324 325 309 
4 309 325 326 310 
4 310 326 327 311 
4 311 327 328 312 
4 312 328 329 313 
4 313 329 330 314 
4 314 330 331 315 
4 315 331 332 316 
4 316 332 333 317 
4 317 333 334 318 
4 318 334 335 319 
4 319 335 320 304 
CELL_TYPES 320
9
9
9
9
9
9
9
9
9
9
9
9
9
9
9
9
9
9
9
9
9
9
9
9
9
9
9
9
9
9
9
9
9
9
9
9
9
9
9
9
9
9
9
9
9
9
9
9
9
9
9
9
9
9
9
9
9
9
9
9
9
9
9
9
9
9
9
9
9
9
9
9
9
9
9
9
9
9
9
9
9
9
9
9
9
9
9
9
9
9
9
9
9
9
9
9
9
9
9
9
9
9
9
9
9
9
9
9
9
9
9
9
9
9
9
9
9
9
9
9
9
9
9
9
9
9
9
9
9
9
9
9
9
9
9
9
9
9
9
9
9
9
9
9
9
9
9
9
9
9
9
9
9
9
9
9
9
9
9
9
9
9
9
9
9
9
9
9
9
9
9
9
9
9
9
9
9
9
9
9
9
9
9
9
9
9
9
9
9
9
9
9
9
9
9
9
9
9
9
9
9
9
9
9
9
9
9
9
9
9
9
9
9
9
9
9
9
9
9
9
9
9
9
9
9
9
9
9
9
9
9
9
9
9
9
9
9
9
9
9
9
9
9
9
9
9
9
9
9
9
9
9
9
9
9
9
9
9
9
9
9
9
9
9
9
9
9
9
9
9
9
9
9
9
9
9
9
9
9
9
9
9
9
9
9
9
9
9
9
9
9
9
9
9
9
9
9
9
9
9
9
9
9
9
9
9
9
9
9
9
9
9
9
9
9
9
9
9
9
9
POINT_DATA 336
VECTORS U float
6.02351e-41 -9.84103e-56 8.42569e-51 
6.02351e-41 -9.84103e-56 8.42569e-51 
6.02351e-41 -9.84103e-56 8.42569e-51 
6.02351e-41 -9.84103e-56 8.42569e-51 
6.02351e-41 -9.84103e-56 8.42569e-51 
6.02351e-41 -9.84103e-56 8.42569e-51 
6.02351e-41 -9.84103e-56 8.42569e-51 
6.02351e-41 -9.84103e-56 8.42569e-51 
6.02351e-41 -9.84103e-56 8.42569e-51 
6.02351e-41 -9.84103e-56 8.42569e-51 
6.02351e-41 -9.84103e-56 8.42569e-51 
6.02351e-41 -9.84103e-56 8.42569e-51 
6.02351e-41 -9.84103e-56 8.42569e-51 
6.02351e-41 -9.84103e-56 8.42569e-51 
6.02351e-41 -9.84103e-56 8.42569e-51 
6.02351e-41 -9.84103e-56 8.42569e-51 
1.70469e-30 -7.6747e-46 -4.23045e-42 
1.70469e-30 -7.6747e-46 -4.23045e-42 
1.70469e-30 -7.6747e-46 -4.23045e-42 
1.70469e-30 -7.6747e-46 -4.23045e-42 
1.70469e-30 -7.6747e-46 -4.23045e-42 
1.70469e-30 -7.6747e-46 -4.23045e-42 
1.70469e-30 -7.6747e-46 -4.23045e-42 
1.70469e-30 -7.6747e-46 -4.23045e-42 
1.70469e-30 -7.6747e-46 -4.23045e-42 
1.70469e-30 -7.6747e-46 -4.23045e-42 
1.70469e-30 -7.6747e-46 -4.23045e-42 
1.70469e-30 -7.6747e-46 -4.23045e-42 
1.70469e-30 -7.6747e-46 -4.23045e-42 
1.70469e-30 -7.6747e-46 -4.23045e-42 
1.70469e-30 -7.6747e-46 -4.23045e-42 
1.70469e-30 -7.6747e-46 -4.23045e-42 
2.34193e-30 -4.51255e-46 -8.31702e-42 
2.34193e-30 -4.51255e-46 -8.31702e-42 
2.34193e-30 -4.51255e-46 -8.31702e-42 
2.34193e-30 -4.51255e-46 -8.31702e-42 
2.34193e-30 -4.51255e-46 -8.31702e-42 
2.34193e-30 -4.51255e-46 -8.31702e-42 
2.34193e-30 -4.51255e-46 -8.31702e-42 
2.34193e-30 -4.51255e-46 -8.31702e-42 
2.34193e-30 -4.51255e-46 -8.31702e-42 
2.34193e-30 -4.51255e-46 -8.31702e-42 
2.34193e-30 -4.51255e-46 -8.31702e-42 
2.34193e-30 -4.51255e-46 -8.31702e-42 
2.34193e-30 -4.51255e-46 -8.31702e-42 
2.34193e-30 -4.51255e-46 -8.31702e-42 
2.34193e-30 -4.51255e-46 -8.31702e-42 
2.34193e-30 -4.51255e-46 -8.31702e-42 
3.96406e-30 -1.25709e-45 -1.21435e-41 
3.96406e-30 -1.25709e-45 -1.21435e-41 
3.96406e-30 -1.25709e-45 -1.21435e-41 
3.96406e-30 -1.25709e-45 -1.21435e-41 
3.96406e-30 -1.25709e-45 -1.21435e-41 
3.96406e-30 -1.25709e-45 -1.21435e-41 
3.96406e-30 -1.25709e-45 -1.21435e-41 
3.96406e-30 -1.25709e-45 -1.21435e-41 
3.96406e-30 -1.25709e-45 -1.21435e-41 
3.96406e-30 -1.25709e-45 -1.21435e-41 
3.96406e-30 -1.25709e-45 -1.21435e-41 
3.96406e-30 -1.25709e-45 -1.21435e-41 
3.96406e-30 -1.25709e-45 -1.21435e-41 
3.96406e-30 -1.25709e-45 -1.21435e-41 
3.96406e-30 -1.25709e-45 -1.21435e-41 
3.96406e-30 -1.25709e-45 -1.21435e-41 
3.45127e-30 -1.43433e-45 -1.56108e-41 
3.45127e-30 -1.43433e-45 -1.56108e-41 
3.45127e-30 -1.43433e-45 -1.56108e-41 
3.45127e-30 -1.43433e-45 -1.56108e-41 
3.45127e-30 -1.43433e-45 -1.56108e-41 
3.45127e-30 -1.43433e-45 -1.56108e-41 
3.45127e-30 -1.43433e-45 -1.56108e-41 
3.45127e-30 -1.43433e-45 -1.56108e-41 
3.45127e-30 -1.43433e-45 -1.56108e-41 
3.45127e-30 -1.43433e-45 -1.56108e-41 
3.45127e-30 -1.43433e-45 -1.56108e-41 
3.45127e-30 -1.43433e-45 -1.56108e-41 
3.45127e-30 -1.43433e-45 -1.56108e-41 
3.45127e-30 -1.43433e-45 -1.56108e-41 
3.45127e-30 -1.43433e-45 -1.56108e-41 
3.45127e-30 -1.43433e-45 -1.56108e-41 
5.15596e-30 -2.20664e-45 -1.86419e-41 
5.15596e-30 -2.20664e-45 -1.86419e-41 
5.15596e-30 -2.20664e-45 -1.86419e-41 
5.15596e-30 -2.20664e-45 -1.86419e-41 
5.15596e-30 -2.20664e-45 -1.86419e-41 
5.15596e-30 -2.20664e-45 -1.86419e-41 
5.15596e-30 -2.20664e-45 -1.86419e-41 
5.15596e-30 -2.20664e-45 -1.86419e-41 
5.15596e-30 -2.20664e-45 -1.86419e-41 
5.15596e-30 -2.20664e-45 -1.86419e-41 
5.15596e-30 -2.20664e-45 -1.86419e-41 
5.15596e-30 -2.20664e-45 -1.86419e-41 
5.15596e-30 -2.20664e-45 -1.86419e-41 
5.15596e-30 -2.20664e-45 -1.86419e-41 
5.15596e-30 -2.20664e-45 -1.86419e-41 
5.15596e-30 -2.20664e-45 -1.86419e-41 
5.7932e-30 -1.89556e-45 -2.11704e-41 
5.7932e-30 -1.89556e-45 -2.11704e-41 
5.7932e-30 -1.89556e-45 -2.11704e-41 
5.7932e-30 -1.89556e-45 -2.11704e-41 
5.7932e-30 -1.89556e-45 -2.11704e-41 
5.7932e-30 -1.89556e-45 -2.11704e-41 
5.7932e-30 -1.89556e-45 -2.11704e-41 
5.7932e-30 -1.89556e-45 -2.11704e-41 
5.7932e-30 -1.89556e-45 -2.11704e-41 
5.7932e-30 -1.89556e-45 -2.11704e-41 
5.7932e-30 -1.89556e-45 -2.11704e-41 
5.7932e-30 -1.89556e-45 -2.11704e-41 
5.7932e-30 -1.89556e-45 -2.11704e-41 
5.7932e-30 -1.89556e-45 -2.11704e-41 
5.7932e-30 -1.89556e-45 -2.11704e-41 
5.7932e-30 -1.89556e-45 -2.11704e-41 
5.19784e-30 -1.36377e-45 -2.3155e-41 
5.19784e-30 -1.36377e-45 -2.3155e-41 
5.19784e-30 -1.36377e-45 -2.3155e-41 
5.19784e-30 -1.36377e-45 -2.3155e-41 
5.19784e-30 -1.36377e-45 -2.3155e-41 
5.19784e-30 -1.36377e-45 -2.3155e-41 
5.19784e-30 -1.36377e-45 -2.3155e-41 
5.19784e-30 -1.36377e-45 -2.3155e-41 
5.19784e-30 -1.36377e-45 -2.3155e-41 
5.19784e-30 -1.36377e-45 -2.3155e-41 
5.19784e-30 -1.36377e-45 -2.3155e-41 
5.19784e-30 -1.36377e-45 -2.3155e-41 
5.19784e-30 -1.36377e-45 -2.3155e-41 
5.19784e-30 -1.36377e-45 -2.3155e-41 
5.19784e-30 -1.36377e-45 -2.3155e-41 
5.19784e-30 -1.36377e-45 -2.3155e-41 
5.66994e-30 -9.62292e-46 -2.45618e-41 
5.66994e-30 -9.62292e-46 -2.45618e-41 
5.66994e-30 -9.62292e-46 -2.45618e-41 
5.66994e-30 -9.62292e-46 -2.45618e-41 
5.66994e-30 -9.62292e-46 -2.45618e-41 
5.66994e-30 -9.62292e-46 -2.45618e-41 
5.66994e-30 -9.62292e-46 -2.45618e-41 
5.66994e-30 -9.62292e-46 -2.45618e-41 
5.66994e-30 -9.62292e-46 -2.45618e-41 
5.66994e-30 -9.62292e-46 -2.45618e-41 
5.66994e-30 -9.62292e-46 -2.45618e-41 
5.66994e-30 -9.62292e-46 -2.45618e-41 
5.66994e-30 -9.62292e-46 -2.45618e-41 
5.66994e-30 -9.62292e-46 -2.45618e-41 
5.66994e-30 -9.62292e-46 -2.45618e-41 
5.66994e-30 -9.62292e-46 -2.45618e-41 
4.99201e-30 -4.68932e-46 -2.53778e-41 
4.99201e-30 -4.68932e-46 -2.53778e-41 
4.99201e-30 -4.68932e-46 -2.53778e-41 
4.99201e-30 -4.68932e-46 -2.53778e-41 
4.99201e-30 -4.68932e-46 -2.53778e-41 
4.99201e-30 -4.68932e-46 -2.53778e-41 
4.99201e-30 -4.68932e-46 -2.53778e-41 
4.99201e-30 -4.68932e-46 -2.53778e-41 
4.99201e-30 -4.68932e-46 -2.53778e-41 
4.99201e-30 -4.68932e-46 -2.53778e-41 
4.99201e-30 -4.68932e-46 -2.53778e-41 
4.99201e-30 -4.68932e-46 -2.53778e-41 
4.99201e-30 -4.68932e-46 -2.53778e-41 
4.99201e-30 -4.68932e-46 -2.53778e-41 
4.99201e-30 -4.68932e-46 -2.53778e-41 
4.99201e-30 -4.68932e-46 -2.53778e-41 
4.31408e-30 -5.60976e-46 -2.55912e-41 
4.31408e-30 -5.60976e-46 -2.55912e-41 
4.31408e-30 -5.60976e-46 -2.55912e-41 
4.31408e-30 -5.60976e-46 -2.55912e-41 
4.31408e-30 -5.60976e-46 -2.55912e-41 
4.31408e-30 -5.60976e-46 -2.55912e-41 
4.31408e-30 -5.60976e-46 -2.55912e-41 
4.31408e-30 -5.60976e-46 -2.55912e-41 
4.31408e-30 -5.60976e-46 -2.55912e-41 
4.31408e-30 -5.60976e-46 -2.55912e-41 
4.31408e-30 -5.60976e-46 -2.55912e-41 
4.31408e-30 -5.60976e-46 -2.55912e-41 
4.31408e-30 -5.60976e-46 -2.55912e-41 
4.31408e-30 -5.60976e-46 -2.55912e-41 
4.31408e-30 -5.60976e-46 -2.55912e-41 
4.31408e-30 -5.60976e-46 -2.55912e-41 
3.63616e-30 -6.97041e-47 -2.5212e-41 
3.63616e-30 -6.97041e-47 -2.5212e-41 
3.63616e-30 -6.97041e-47 -2.5212e-41 
3.63616e-30 -6.97041e-47 -2.5212e-41 
3.63616e-30 -6.97041e-47 -2.5212e-41 
3.63616e-30 -6.97041e-47 -2.5212e-41 
3.63616e-30 -6.97041e-47 -2.5212e-41 
3.63616e-30 -6.97041e-47 -2.5212e-41 
3.63616e-30 -6.97041e-47 -2.5212e-41 
3.63616e-30 -6.97041e-47 -2.5212e-41 
3.63616e-30 -6.97041e-47 -2.5212e-41 
3.63616e-30 -6.97041e-47 -2.5212e-41 
3.63616e-30 -6.97041e-47 -2.5212e-41 
3.63616e-30 -6.97041e-47 -2.5212e-41 
3.63616e-30 -6.97041e-47 -2.5212e-41 
3.63616e-30 -6.97041e-47 -2.5212e-41 
2.95823e-30 -1.63491e-46 -2.42537e-41 
2.95823e-30 -1.63491e-46 -2.42537e-41 
2.95823e-30 -1.63491e-46 -2.42537e-41 
2.95823e-30 -1.63491e-46 -2.42537e-41 
2.95823e-30 -1.63491e-46 -2.42537e-41 
2.95823e-30 -1.63491e-46 -2.42537e-41 
2.95823e-30 -1.63491e-46 -2.42537e-41 
2.95823e-30 -1.63491e-46 -2.42537e-41 
2.95823e-30 -1.63491e-46 -2.42537e-41 
2.95823e-30 -1.63491e-46 -2.42537e-41 
2.95823e-30 -1.63491e-46 -2.42537e-41 
2.95823e-30 -1.63491e-46 -2.42537e-41 
2.95823e-30 -1.63491e-46 -2.42537e-41 
2.95823e-30 -1.63491e-46 -2.42537e-41 
2.95823e-30 -1.63491e-46 -2.42537e-41 
2.95823e-30 -1.63491e-46 -2.42537e-41 
2.2803e-30 3.25543e-46 -2.27472e-41 
2.2803e-30 3.25543e-46 -2.27472e-41 
2.2803e-30 3.25543e-46 -2.27472e-41 
2.2803e-30 3.25543e-46 -2.27472e-41 
2.2803e-30 3.25543e-46 -2.27472e-41 
2.2803e-30 3.25543e-46 -2.27472e-41 
2.2803e-30 3.25543e-46 -2.27472e-41 
2.2803e-30 3.25543e-46 -2.27472e-41 
2.2803e-30 3.25543e-46 -2.27472e-41 
2.2803e-30 3.25543e-46 -2.27472e-41 
2.2803e-30 3.25543e-46 -2.27472e-41 
2.2803e-30 3.25543e-46 -2.27472e-41 
2.2803e-30 3.25543e-46 -2.27472e-41 
2.2803e-30 3.25543e-46 -2.27472e-41 
2.2803e-30 3.25543e-46 -2.27472e-41 
2.2803e-30 3.25543e-46 -2.27472e-41 
1.60237e-30 2.30702e-46 -2.07114e-41 
1.60237e-30 2.30702e-46 -2.07114e-41 
1.60237e-30 2.30702e-46 -2.07114e-41 
1.60237e-30 2.30702e-46 -2.07114e-41 
1.60237e-30 2.30702e-46 -2.07114e-41 
1.60237e-30 2.30702e-46 -2.07114e-41 
1.60237e-30 2.30702e-46 -2.07114e-41 
1.60237e-30 2.30702e-46 -2.07114e-41 
1.60237e-30 2.30702e-46 -2.07114e-41 
1.60237e-30 2.30702e-46 -2.07114e-41 
1.60237e-30 2.30702e-46 -2.07114e-41 
1.60237e-30 2.30702e-46 -2.07114e-41 
1.60237e-30 2.30702e-46 -2.07114e-41 
1.60237e-30 2.30702e-46 -2.07114e-41 
1.60237e-30 2.30702e-46 -2.07114e-41 
1.60237e-30 2.30702e-46 -2.07114e-41 
9.24446e-31 7.19315e-46 -1.81774e-41 
9.24446e-31 7.19315e-46 -1.81774e-41 
9.24446e-31 7.19315e-46 -1.81774e-41 
9.24446e-31 7.19315e-46 -1.81774e-41 
9.24446e-31 7.19315e-46 -1.81774e-41 
9.24446e-31 7.19315e-46 -1.81774e-41 
9.24446e-31 7.19315e-46 -1.81774e-41 
9.24446e-31 7.19315e-46 -1.81774e-41 
9.24446e-31 7.19315e-46 -1.81774e-41 
9.24446e-31 7.19315e-46 -1.81774e-41 
9.24446e-31 7.19315e-46 -1.81774e-41 
9.24446e-31 7.19315e-46 -1.81774e-41 
9.24446e-31 7.19315e-46 -1.81774e-41 
9.24446e-31 7.19315e-46 -1.81774e-41 
9.24446e-31 7.19315e-46 -1.81774e-41 
9.24446e-31 7.19315e-46 -1.81774e-41 
2.46519e-31 6.23312e-46 -1.518e-41 
2.46519e-31 6.23312e-46 -1.518e-41 
2.46519e-31 6.23312e-46 -1.518e-41 
2.46519e-31 6.23312e-46 -1.518e-41 
2.46519e-31 6.23312e-46 -1.518e-41 
2.46519e-31 6.23312e-46 -1.518e-41 
2.46519e-31 6.23312e-46 -1.518e-41 
2.46519e-31 6.23312e-46 -1.518e-41 
2.46519e-31 6.23312e-46 -1.518e-41 
2.46519e-31 6.23312e-46 -1.518e-41 
2.46519e-31 6.23312e-46 -1.518e-41 
2.46519e-31 6.23312e-46 -1.518e-41 
2.46519e-31 6.23312e-46 -1.518e-41 
2.46519e-31 6.23312e-46 -1.518e-41 
2.46519e-31 6.23312e-46 -1.518e-41 
2.46519e-31 6.23312e-46 -1.518e-41 
1.86865e-30 -1.95718e-46 -1.17782e-41 
1.86865e-30 -1.95718e-46 -1.17782e-41 
1.86865e-30 -1.95718e-46 -1.17782e-41 
1.86865e-30 -1.95718e-46 -1.17782e-41 
1.86865e-30 -1.95718e-46 -1.17782e-41 
1.86865e-30 -1.95718e-46 -1.17782e-41 
1.86865e-30 -1.95718e-46 -1.17782e-41 
1.86865e-30 -1.95718e-46 -1.17782e-41 
1.86865e-30 -1.95718e-46 -1.17782e-41 
1.86865e-30 -1.95718e-46 -1.17782e-41 
1.86865e-30 -1.95718e-46 -1.17782e-41 
1.86865e-30 -1.95718e-46 -1.17782e-41 
1.86865e-30 -1.95718e-46 -1.17782e-41 
1.86865e-30 -1.95718e-46 -1.17782e-41 
1.86865e-30 -1.95718e-46 -1.17782e-41 
1.86865e-30 -1.95718e-46 -1.17782e-41 
1.35585e-30 -3.8605e-46 -8.04404e-42 
1.35585e-30 -3.8605e-46 -8.04404e-42 
1.35585e-30 -3.8605e-46 -8.04404e-42 
1.35585e-30 -3.8605e-46 -8.04404e-42 
1.35585e-30 -3.8605e-46 -8.04404e-42 
1.35585e-30 -3.8605e-46 -8.04404e-42 
1.35585e-30 -3.8605e-46 -8.04404e-42 
1.35585e-30 -3.8605e-46 -8.04404e-42 
1.35585e-30 -3.8605e-46 -8.04404e-42 
1.35585e-30 -3.8605e-46 -8.04404e-42 
1.35585e-30 -3.8605e-46 -8.04404e-42 
1.35585e-30 -3.8605e-46 -8.04404e-42 
1.35585e-30 -3.8605e-46 -8.04404e-42 
1.35585e-30 -3.8605e-46 -8.04404e-42 
1.35585e-30 -3.8605e-46 -8.04404e-42 
1.35585e-30 -3.8605e-46 -8.04404e-42 
6.77927e-31 9.94797e-47 -4.08162e-42 
6.77927e-31 9.94797e-47 -4.08162e-42 
6.77927e-31 9.94797e-47 -4.08162e-42 
6.77927e-31 9.94797e-47 -4.08162e-42 
6.77927e-31 9.94797e-47 -4.08162e-42 
6.77927e-31 9.94797e-47 -4.08162e-42 
6.77927e-31 9.94797e-47 -4.08162e-42 
6.77927e-31 9.94797e-47 -4.08162e-42 
6.77927e-31 9.94797e-47 -4.08162e-42 
6.77927e-31 9.94797e-47 -4.08162e-42 
6.77927e-31 9.94797e-47 -4.08162e-42 
6.77927e-31 9.94797e-47 -4.08162e-42 
6.77927e-31 9.94797e-47 -4.08162e-42 
6.77927e-31 9.94797e-47 -4.08162e-42 
6.77927e-31 9.94797e-47 -4.08162e-42 
6.77927e-31 9.94797e-47 -4.08162e-42 
7.78525e-46 0 1.04507e-55 
7.78525e-46 0 1.04507e-55 
7.78525e-46 0 1.04507e-55 
7.78525e-46 0 1.04507e-55 
7.78525e-46 0 1.04507e-55 
7.78525e-46 0 1.04507e-55 
7.78525e-46 0 1.04507e-55 
7.78525e-46 0 1.04507e-55 
7.78525e-46 0 1.04507e-55 
7.78525e-46 0 1.04507e-55 
7.78525e-46 0 1.04507e-55 
7.78525e-46 0 1.04507e-55 
7.78525e-46 0 1.04507e-55 
7.78525e-46 0 1.04507e-55 
7.78525e-46 0 1.04507e-55 
7.78525e-46 0 1.04507e-55 
VECTORS theta float
-1.70168e-43 1.51374e-31 2.71171e-32 
-1.70168e-43 1.51374e-31 2.71171e-32 
-1.70168e-43 1.51374e-31 2.71171e-32 
-1.70168e-43 1.51374e-31 2.71171e-32 
-1.70168e-43 1.51374e-31 2.71171e-32 
-1.70168e-43 1.51374e-31 2.71171e-32 
-1.70168e-43 1.51374e-31 2.71171e-32 
-1.70168e-43 1.51374e-31 2.71171e-32 
-1.70168e-43 1.51374e-31 2.71171e-32 
-1.70168e-43 1.51374e-31 2.71171e-32 
-1.70168e-43 1.51374e-31 2.71171e-32 
-1.70168e-43 1.51374e-31 2.71171e-32 
-1.70168e-43 1.51374e-31 2.71171e-32 
-1.70168e-43 1.51374e-31 2.71171e-32 
-1.70168e-43 1.51374e-31 2.71171e-32 
-1.70168e-43 1.51374e-31 2.71171e-32 
-1.67221e-43 1.51374e-31 2.71171e-32 
-1.67221e-43 1.51374e-31 2.71171e-32 
-1.67221e-43 1.51374e-31 2.71171e-32 
-1.67221e-43 1.51374e-31 2.71171e-32 
-1.67221e-43 1.51374e-31 2.71171e-32 
-1.67221e-43 1.51374e-31 2.71171e-32 
-1.67221e-43 1.51374e-31 2.71171e-32 
-1.67221e-43 1.51374e-31 2.71171e-32 
-1.67221e-43 1.51374e-31 2.71171e-32 
-1.67221e-43 1.51374e-31 2.71171e-32 
-1.67221e-43 1.51374e-31 2.71171e-32 
-1.67221e-43 1.51374e-31 2.71171e-32 
-1.67221e-43 1.51374e-31 2.71171e-32 
-1.67221e-43 1.51374e-31 2.71171e-32 
-1.67221e-43 1.51374e-31 2.71171e-32 
-1.67221e-43 1.51374e-31 2.71171e-32 
-1.58918e-43 1.51374e-31 2.71171e-32 
-1.58918e-43 1.51374e-31 2.71171e-32 
-1.58918e-43 1.51374e-31 2.71171e-32 
-1.58918e-43 1.51374e-31 2.71171e-32 
-1.58918e-43 1.51374e-31 2.71171e-32 
-1.58918e-43 1.51374e-31 2.71171e-32 
-1.58918e-43 1.51374e-31 2.71171e-32 
-1.58918e-43 1.51374e-31 2.71171e-32 
-1.58918e-43 1.51374e-31 2.71171e-32 
-1.58918e-43 1.51374e-31 2.71171e-32 
-1.58918e-43 1.51374e-31 2.71171e-32 
-1.58918e-43 1.51374e-31 2.71171e-32 
-1.58918e-43 1.51374e-31 2.71171e-32 
-1.58918e-43 1.51374e-31 2.71171e-32 
-1.58918e-43 1.51374e-31 2.71171e-32 
-1.58918e-43 1.51374e-31 2.71171e-32 
-1.46456e-43 1.51374e-31 2.71171e-32 
-1.46456e-43 1.51374e-31 2.71171e-32 
-1.46456e-43 1.51374e-31 2.71171e-32 
-1.46456e-43 1.51374e-31 2.71171e-32 
-1.46456e-43 1.51374e-31 2.71171e-32 
-1.46456e-43 1.51374e-31 2.71171e-32 
-1.46456e-43 1.51374e-31 2.71171e-32 
-1.46456e-43 1.51374e-31 2.71171e-32 
-1.46456e-43 1.51374e-31 2.71171e-32 
-1.46456e-43 1.51374e-31 2.71171e-32 
-1.46456e-43 1.51374e-31 2.71171e-32 
-1.46456e-43 1.51374e-31 2.71171e-32 
-1.46456e-43 1.51374e-31 2.71171e-32 
-1.46456e-43 1.51374e-31 2.71171e-32 
-1.46456e-43 1.51374e-31 2.71171e-32 
-1.46456e-43 1.51374e-31 2.71171e-32 
-1.30438e-43 1.51374e-31 2.71171e-32 
-1.30438e-43 1.51374e-31 2.71171e-32 
-1.30438e-43 1.51374e-31 2.71171e-32 
-1.30438e-43 1.51374e-31 2.71171e-32 
-1.30438e-43 1.51374e-31 2.71171e-32 
-1.30438e-43 1.51374e-31 2.71171e-32 
-1.30438e-43 1.51374e-31 2.71171e-32 
-1.30438e-43 1.51374e-31 2.71171e-32 
-1.30438e-43 1.51374e-31 2.71171e-32 
-1.30438e-43 1.51374e-31 2.71171e-32 
-1.30438e-43 1.51374e-31 2.71171e-32 
-1.30438e-43 1.51374e-31 2.71171e-32 
-1.30438e-43 1.51374e-31 2.71171e-32 
-1.30438e-43 1.51374e-31 2.71171e-32 
-1.30438e-43 1.51374e-31 2.71171e-32 
-1.30438e-43 1.51374e-31 2.71171e-32 
-1.11537e-43 1.51374e-31 2.71171e-32 
-1.11537e-43 1.51374e-31 2.71171e-32 
-1.11537e-43 1.51374e-31 2.71171e-32 
-1.11537e-43 1.51374e-31 2.71171e-32 
-1.11537e-43 1.51374e-31 2.71171e-32 
-1.11537e-43 1.51374e-31 2.71171e-32 
-1.11537e-43 1.51374e-31 2.71171e-32 
-1.11537e-43 1.51374e-31 2.71171e-32 
-1.11537e-43 1.51374e-31 2.71171e-32 
-1.11537e-43 1.51374e-31 2.71171e-32 
-1.11537e-43 1.51374e-31 2.71171e-32 
-1.11537e-43 1.51374e-31 2.71171e-32 
-1.11537e-43 1.51374e-31 2.71171e-32 
-1.11537e-43 1.51374e-31 2.71171e-32 
-1.11537e-43 1.51374e-31 2.71171e-32 
-1.11537e-43 1.51374e-31 2.71171e-32 
-9.0494e-44 1.51374e-31 2.71171e-32 