# vtk DataFile Version 2.0
# Cantilever Beam 
ASCII
DATASET UNSTRUCTURED_GRID
POINTS 5 float
0 0
12.5 0
25 0
37.5 0
50 0

CELLS 4 12
2 0 1
2 1 2
2 2 3
2 3 4

CELL_TYPES 4
3 
3 
3 
3 

POINT_DATA 5
VECTORS U float 
0.000607532 1.48775e-16
1.48775e-16 -0.00707355
-0.00707355 0.000308703
0.000308703 0.085829
0.085829 -0.00646567
SCALARS Theta float 
-0.00707355
0.000308703
0.085829
-0.00646567
0.000100767
