# vtk DataFile Version 2.0
# Cantilever Beam 
ASCII
DATASET UNSTRUCTURED_GRID
POINTS 5 float
0 0
12.5 0
25 0
37.5 0
50 0

CELLS 4 12
2 0 1
2 1 2
2 2 3
2 3 4

CELL_TYPES 4
3 
3 
3 
3 

POINT_DATA 5
VECTORS U float 
0.000341737 9.85136e-17
9.85136e-17 -0.00530516
-0.00530516 0.000173645
0.000173645 0.0643718
0.0643718 -0.00484925
SCALARS Theta float 
-0.00530516
0.000173645
0.0643718
-0.00484925
5.66817e-05
