# vtk DataFile Version 2.0
# Cantilever Beam 
ASCII
DATASET UNSTRUCTURED_GRID
POINTS 5 float
0 0
12.5 0
25 0
37.5 0
50 0

CELLS 4 12
2 0 1
2 1 2
2 2 3
2 3 4

CELL_TYPES 4
3 
3 
3 
3 

POINT_DATA 5
VECTORS U float 
0.00186057 1.70891e-16
1.70891e-16 -0.0123787
-0.0123787 0.000945402
0.000945402 0.150201
0.150201 -0.0113149
SCALARS Theta float 
-0.0123787
0.000945402
0.150201
-0.0113149
0.0003086
