# vtk DataFile Version 2.0
# Cantilever Beam 
ASCII
DATASET UNSTRUCTURED_GRID
POINTS 5 float
0 0
12.5 0
25 0
37.5 0
50 0

CELLS 4 12
2 0 1
2 1 2
2 2 3
2 3 4

CELL_TYPES 4
3 
3 
3 
3 

POINT_DATA 5
VECTORS U float 
3.79708e-05 9.04688e-17
9.04688e-17 -0.00176839
-0.00176839 1.92939e-05
1.92939e-05 0.0214573
0.0214573 -0.00161642
SCALARS Theta float 
-0.00176839
1.92939e-05
0.0214573
-0.00161642
6.29797e-06
