# vtk DataFile Version 2.0
# Cantilever Beam 
ASCII
DATASET UNSTRUCTURED_GRID
POINTS 5 float
0 0
12.5 0
25 0
37.5 0
50 0

CELLS 4 12
2 0 1
2 1 2
2 2 3
2 3 4

CELL_TYPES 4
3 
3 
3 
3 

POINT_DATA 5
VECTORS U float 
0.000151883 1.20626e-16
1.20626e-16 -0.00353678
-0.00353678 7.71757e-05
7.71757e-05 0.0429145
0.0429145 -0.00323283
SCALARS Theta float 
-0.00353678
7.71757e-05
0.0429145
-0.00323283
2.51919e-05
