# vtk DataFile Version 2.0
# Cantilever Beam 
ASCII
DATASET UNSTRUCTURED_GRID
POINTS 5 float
0 0
12.5 0
25 0
37.5 0
50 0

CELLS 4 12
2 0 1
2 1 2
2 2 3
2 3 4

CELL_TYPES 4
3 
3 
3 
3 

POINT_DATA 5
VECTORS U float 
0.00136695 7.84118e-17
7.84118e-17 -0.0106103
-0.0106103 0.000694581
0.000694581 0.128744
0.128744 -0.0096985
SCALARS Theta float 
-0.0106103
0.000694581
0.128744
-0.0096985
0.000226727
